<?xml version="1.0" encoding="UTF-8" standalone="no" ?>
<VTKFile byte_order="LittleEndian" type="UnstructuredGrid" version="0.1">
  <UnstructuredGrid>
    <Piece NumberOfCells="0" NumberOfPoints="10">
      <PointData>
        <DataArray Name="characteristic-length" NumberOfComponents="1" format="ascii" type="Float32">
          0.17924908995226854
          0.17924908995226854
          0.17924908995226854
          0.17924908995226854
          0.17924908995226854
          0.17924908995226854
          0.17924908995226854
          0.17924908995226854
          0.17924908995226854
          0.17924908995226854
        </DataArray>
        <DataArray Name="mass" NumberOfComponents="1" format="ascii" type="Float32">
          1
          1
          1
          1
          1
          1
          1
          1
          1
          1
        </DataArray>
        <DataArray Name="area" NumberOfComponents="1" format="ascii" type="Float32">
          0.025235028539268022
          0.025235028539268022
          0.025235028539268022
          0.025235028539268022
          0.025235028539268022
          0.025235028539268022
          0.025235028539268022
          0.025235028539268022
          0.025235028539268022
          0.025235028539268022
        </DataArray>
        <DataArray Name="area-to-mass" NumberOfComponents="1" format="ascii" type="Float32">
          0.025235028539268022
          0.025235028539268022
          0.025235028539268022
          0.025235028539268022
          0.025235028539268022
          0.025235028539268022
          0.025235028539268022
          0.025235028539268022
          0.025235028539268022
          0.025235028539268022
        </DataArray>
        <DataArray Name="velocity" NumberOfComponents="3" format="ascii" type="Float32">
          6385.255116075109 -2997.6329143042494 3057.7458003792376
          580.3456449361277 7355.33750529287 -1443.7850059443115
          1113.492038181744 6786.770509956889 -4355.420970036469
          1993.9324927919174 6570.762803519308 4502.245265889655
          4647.557650609666 2963.9641802770616 5199.747036953121
          -7478.896509368502 393.1096815786167 554.9748341644352
          -6829.079740291605 2493.9082506452196 -401.1170160648821
          -3469.9092245684333 4794.3533796416505 4824.927672798268
          -2919.0773618520066 -533.0485872315606 6789.556116959477
          5651.203374949668 -3064.216277062682 2797.221478833582
        </DataArray>
        <DataArray Name="ejection-velocity" NumberOfComponents="3" format="ascii" type="Float32">
          0 0 0
          0 0 0
          0 0 0
          0 0 0
          0 0 0
          0 0 0
          0 0 0
          0 0 0
          0 0 0
          0 0 0
        </DataArray>
      </PointData>
      <CellData/>
      <Points>
        <DataArray Name="position" NumberOfComponents="3" format="ascii" type="Float32">
          -2574680.001853063 -6250019.857990015 -3402759.4465881367
          6405341.653266222 -291844.46776119317 -3986296.5778698837
          6952545.449752396 -437850.28749650076 488651.28230144916
          6497792.23217791 -2295147.0873523136 218082.2460093073
          5262670.516161486 -3883988.997754423 -2355274.423753908
          -148554.63011976192 4707726.320719637 -5238009.1334993215
          674889.4814029103 2846575.815246637 6719422.977650933
          5134564.933057323 -1027659.3455529317 4596329.331715181
          -355127.2205552652 7166169.973439676 564865.9660426346
          -4777549.7043446535 -4181991.810560742 4930869.375470098
        </DataArray>
      </Points>
      <Cells>
        <DataArray Name="types" NumberOfComponents="0" format="ascii" type="Float32"/>
      </Cells>
    </Piece>
  </UnstructuredGrid>
</VTKFile>
