<?xml version="1.0" encoding="UTF-8" standalone="no" ?>
<VTKFile byte_order="LittleEndian" type="UnstructuredGrid" version="0.1">
  <UnstructuredGrid>
    <Piece NumberOfCells="0" NumberOfPoints="10">
      <PointData>
        <DataArray Name="characteristic-length" NumberOfComponents="1" format="ascii" type="Float32">
          0.17924908995226854
          0.17924908995226854
          0.17924908995226854
          0.17924908995226854
          0.17924908995226854
          0.17924908995226854
          0.17924908995226854
          0.17924908995226854
          0.17924908995226854
          0.17924908995226854
        </DataArray>
        <DataArray Name="mass" NumberOfComponents="1" format="ascii" type="Float32">
          1
          1
          1
          1
          1
          1
          1
          1
          1
          1
        </DataArray>
        <DataArray Name="area" NumberOfComponents="1" format="ascii" type="Float32">
          0.025235028539268022
          0.025235028539268022
          0.025235028539268022
          0.025235028539268022
          0.025235028539268022
          0.025235028539268022
          0.025235028539268022
          0.025235028539268022
          0.025235028539268022
          0.025235028539268022
        </DataArray>
        <DataArray Name="area-to-mass" NumberOfComponents="1" format="ascii" type="Float32">
          0.025235028539268022
          0.025235028539268022
          0.025235028539268022
          0.025235028539268022
          0.025235028539268022
          0.025235028539268022
          0.025235028539268022
          0.025235028539268022
          0.025235028539268022
          0.025235028539268022
        </DataArray>
        <DataArray Name="velocity" NumberOfComponents="3" format="ascii" type="Float32">
          6382.766130090019 -3003.665481484026 3054.4514505964908
          586.5726042362598 7355.050025660454 -1447.6686935796597
          1122.0472614955643 6786.227304817862 -4354.81518918721
          2002.2398043890587 6567.823669370195 4502.52187244878
          4654.114440239316 2959.1210063704716 5196.799833545714
          -7479.069295773987 398.73301632420134 548.700704157226
          -6828.361171161329 2496.9216640740665 -393.9826403844843
          -3463.563962205186 4793.08076545548 4830.618072412332
          -2919.4748536911925 -524.9929016678198 6790.18868784773
          5647.355838251035 -3067.5807650360643 2801.1969475600476
        </DataArray>
        <DataArray Name="ejection-velocity" NumberOfComponents="3" format="ascii" type="Float32">
          0 0 0
          0 0 0
          0 0 0
          0 0 0
          0 0 0
          0 0 0
          0 0 0
          0 0 0
          0 0 0
          0 0 0
        </DataArray>
      </PointData>
      <CellData/>
      <Points>
        <DataArray Name="position" NumberOfComponents="3" format="ascii" type="Float32">
          -2581702.348821546 -6246718.985371601 -3406121.068938591
          6404699.68531171 -299935.1740441625 -3984706.176628115
          6951315.679072982 -445315.4228466933 493441.8968283569
          6495594.119550872 -2302373.2336907303 213129.61630411923
          5257554.42427526 -3887246.5681206114 -2360992.447954553
          -140327.74357708357 4707290.659915638 -5238615.990785416
          682401.0557512279 2843830.779623568 6719860.095640349
          5138378.177503036 -1032932.4015455206 4591018.631953998
          -351916.00612563256 7166751.685377261 557397.089130085
          -4783763.811557047 -4178619.2338373596 4927790.141001949
        </DataArray>
      </Points>
      <Cells>
        <DataArray Name="types" NumberOfComponents="0" format="ascii" type="Float32"/>
      </Cells>
    </Piece>
  </UnstructuredGrid>
</VTKFile>
